<?xml version="1.0"?>
<VTKFile type="UnstructuredGrid"  version="0.1"  >
<UnstructuredGrid>
<Piece  NumberOfPoints="210" NumberOfCells="720">
<Points>
<DataArray  type="Float32"  NumberOfComponents="3"  format="ascii">0 0 0  0.166667 0 0  0.333333 0 0  0.5 0 0  0.666667 0 0  0.833333 0 0  1 0 0  0 0.25 0  0.166667 0.25 0  0.333333 0.25 0  0.5 0.25 0  0.666667 0.25 0  0.833333 0.25 0  1 0.25 0  0 0.5 0  0.166667 0.5 0  0.333333 0.5 0  0.5 0.5 0  0.666667 0.5 0  0.833333 0.5 0  1 0.5 0  0 0.75 0  0.166667 0.75 0  0.333333 0.75 0  0.5 0.75 0  0.666667 0.75 0  0.833333 0.75 0  1 0.75 0  0 1 0  0.166667 1 0  0.333333 1 0  0.5 1 0  0.666667 1 0  0.833333 1 0  1 1 0  0 0 0.2  0.166667 0 0.2  0.333333 0 0.2  0.5 0 0.2  0.666667 0 0.2  0.833333 0 0.2  1 0 0.2  0 0.25 0.2  0.166667 0.25 0.2  0.333333 0.25 0.2  0.5 0.25 0.2  0.666667 0.25 0.2  0.833333 0.25 0.2  1 0.25 0.2  0 0.5 0.2  0.166667 0.5 0.2  0.333333 0.5 0.2  0.5 0.5 0.2  0.666667 0.5 0.2  0.833333 0.5 0.2  1 0.5 0.2  0 0.75 0.2  0.166667 0.75 0.2  0.333333 0.75 0.2  0.5 0.75 0.2  0.666667 0.75 0.2  0.833333 0.75 0.2  1 0.75 0.2  0 1 0.2  0.166667 1 0.2  0.333333 1 0.2  0.5 1 0.2  0.666667 1 0.2  0.833333 1 0.2  1 1 0.2  0 0 0.4  0.166667 0 0.4  0.333333 0 0.4  0.5 0 0.4  0.666667 0 0.4  0.833333 0 0.4  1 0 0.4  0 0.25 0.4  0.166667 0.25 0.4  0.333333 0.25 0.4  0.5 0.25 0.4  0.666667 0.25 0.4  0.833333 0.25 0.4  1 0.25 0.4  0 0.5 0.4  0.166667 0.5 0.4  0.333333 0.5 0.4  0.5 0.5 0.4  0.666667 0.5 0.4  0.833333 0.5 0.4  1 0.5 0.4  0 0.75 0.4  0.166667 0.75 0.4  0.333333 0.75 0.4  0.5 0.75 0.4  0.666667 0.75 0.4  0.833333 0.75 0.4  1 0.75 0.4  0 1 0.4  0.166667 1 0.4  0.333333 1 0.4  0.5 1 0.4  0.666667 1 0.4  0.833333 1 0.4  1 1 0.4  0 0 0.6  0.166667 0 0.6  0.333333 0 0.6  0.5 0 0.6  0.666667 0 0.6  0.833333 0 0.6  1 0 0.6  0 0.25 0.6  0.166667 0.25 0.6  0.333333 0.25 0.6  0.5 0.25 0.6  0.666667 0.25 0.6  0.833333 0.25 0.6  1 0.25 0.6  0 0.5 0.6  0.166667 0.5 0.6  0.333333 0.5 0.6  0.5 0.5 0.6  0.666667 0.5 0.6  0.833333 0.5 0.6  1 0.5 0.6  0 0.75 0.6  0.166667 0.75 0.6  0.333333 0.75 0.6  0.5 0.75 0.6  0.666667 0.75 0.6  0.833333 0.75 0.6  1 0.75 0.6  0 1 0.6  0.166667 1 0.6  0.333333 1 0.6  0.5 1 0.6  0.666667 1 0.6  0.833333 1 0.6  1 1 0.6  0 0 0.8  0.166667 0 0.8  0.333333 0 0.8  0.5 0 0.8  0.666667 0 0.8  0.833333 0 0.8  1 0 0.8  0 0.25 0.8  0.166667 0.25 0.8  0.333333 0.25 0.8  0.5 0.25 0.8  0.666667 0.25 0.8  0.833333 0.25 0.8  1 0.25 0.8  0 0.5 0.8  0.166667 0.5 0.8  0.333333 0.5 0.8  0.5 0.5 0.8  0.666667 0.5 0.8  0.833333 0.5 0.8  1 0.5 0.8  0 0.75 0.8  0.166667 0.75 0.8  0.333333 0.75 0.8  0.5 0.75 0.8  0.666667 0.75 0.8  0.833333 0.75 0.8  1 0.75 0.8  0 1 0.8  0.166667 1 0.8  0.333333 1 0.8  0.5 1 0.8  0.666667 1 0.8  0.833333 1 0.8  1 1 0.8  0 0 1  0.166667 0 1  0.333333 0 1  0.5 0 1  0.666667 0 1  0.833333 0 1  1 0 1  0 0.25 1  0.166667 0.25 1  0.333333 0.25 1  0.5 0.25 1  0.666667 0.25 1  0.833333 0.25 1  1 0.25 1  0 0.5 1  0.166667 0.5 1  0.333333 0.5 1  0.5 0.5 1  0.666667 0.5 1  0.833333 0.5 1  1 0.5 1  0 0.75 1  0.166667 0.75 1  0.333333 0.75 1  0.5 0.75 1  0.666667 0.75 1  0.833333 0.75 1  1 0.75 1  0 1 1  0.166667 1 1  0.333333 1 1  0.5 1 1  0.666667 1 1  0.833333 1 1  1 1 1  </DataArray>
</Points>
<Cells>
<DataArray  type="UInt32"  Name="connectivity"  format="ascii">0 1 8 43  0 1 36 43  0 35 36 43  0 7 8 43  0 35 42 43  0 7 42 43  1 2 9 44  1 2 37 44  1 36 37 44  1 8 9 44  1 36 43 44  1 8 43 44  2 3 10 45  2 3 38 45  2 37 38 45  2 9 10 45  2 37 44 45  2 9 44 45  3 4 11 46  3 4 39 46  3 38 39 46  3 10 11 46  3 38 45 46  3 10 45 46  4 5 12 47  4 5 40 47  4 39 40 47  4 11 12 47  4 39 46 47  4 11 46 47  5 6 13 48  5 6 41 48  5 40 41 48  5 12 13 48  5 40 47 48  5 12 47 48  7 8 15 50  7 8 43 50  7 42 43 50  7 14 15 50  7 42 49 50  7 14 49 50  8 9 16 51  8 9 44 51  8 43 44 51  8 15 16 51  8 43 50 51  8 15 50 51  9 10 17 52  9 10 45 52  9 44 45 52  9 16 17 52  9 44 51 52  9 16 51 52  10 11 18 53  10 11 46 53  10 45 46 53  10 17 18 53  10 45 52 53  10 17 52 53  11 12 19 54  11 12 47 54  11 46 47 54  11 18 19 54  11 46 53 54  11 18 53 54  12 13 20 55  12 13 48 55  12 47 48 55  12 19 20 55  12 47 54 55  12 19 54 55  14 15 22 57  14 15 50 57  14 49 50 57  14 21 22 57  14 49 56 57  14 21 56 57  15 16 23 58  15 16 51 58  15 50 51 58  15 22 23 58  15 50 57 58  15 22 57 58  16 17 24 59  16 17 52 59  16 51 52 59  16 23 24 59  16 51 58 59  16 23 58 59  17 18 25 60  17 18 53 60  17 52 53 60  17 24 25 60  17 52 59 60  17 24 59 60  18 19 26 61  18 19 54 61  18 53 54 61  18 25 26 61  18 53 60 61  18 25 60 61  19 20 27 62  19 20 55 62  19 54 55 62  19 26 27 62  19 54 61 62  19 26 61 62  21 22 29 64  21 22 57 64  21 56 57 64  21 28 29 64  21 56 63 64  21 28 63 64  22 23 30 65  22 23 58 65  22 57 58 65  22 29 30 65  22 57 64 65  22 29 64 65  23 24 31 66  23 24 59 66  23 58 59 66  23 30 31 66  23 58 65 66  23 30 65 66  24 25 32 67  24 25 60 67  24 59 60 67  24 31 32 67  24 59 66 67  24 31 66 67  25 26 33 68  25 26 61 68  25 60 61 68  25 32 33 68  25 60 67 68  25 32 67 68  26 27 34 69  26 27 62 69  26 61 62 69  26 33 34 69  26 61 68 69  26 33 68 69  35 36 43 78  35 36 71 78  35 70 71 78  35 42 43 78  35 70 77 78  35 42 77 78  36 37 44 79  36 37 72 79  36 71 72 79  36 43 44 79  36 71 78 79  36 43 78 79  37 38 45 80  37 38 73 80  37 72 73 80  37 44 45 80  37 72 79 80  37 44 79 80  38 39 46 81  38 39 74 81  38 73 74 81  38 45 46 81  38 73 80 81  38 45 80 81  39 40 47 82  39 40 75 82  39 74 75 82  39 46 47 82  39 74 81 82  39 46 81 82  40 41 48 83  40 41 76 83  40 75 76 83  40 47 48 83  40 75 82 83  40 47 82 83  42 43 50 85  42 43 78 85  42 77 78 85  42 49 50 85  42 77 84 85  42 49 84 85  43 44 51 86  43 44 79 86  43 78 79 86  43 50 51 86  43 78 85 86  43 50 85 86  44 45 52 87  44 45 80 87  44 79 80 87  44 51 52 87  44 79 86 87  44 51 86 87  45 46 53 88  45 46 81 88  45 80 81 88  45 52 53 88  45 80 87 88  45 52 87 88  46 47 54 89  46 47 82 89  46 81 82 89  46 53 54 89  46 81 88 89  46 53 88 89  47 48 55 90  47 48 83 90  47 82 83 90  47 54 55 90  47 82 89 90  47 54 89 90  49 50 57 92  49 50 85 92  49 84 85 92  49 56 57 92  49 84 91 92  49 56 91 92  50 51 58 93  50 51 86 93  50 85 86 93  50 57 58 93  50 85 92 93  50 57 92 93  51 52 59 94  51 52 87 94  51 86 87 94  51 58 59 94  51 86 93 94  51 58 93 94  52 53 60 95  52 53 88 95  52 87 88 95  52 59 60 95  52 87 94 95  52 59 94 95  53 54 61 96  53 54 89 96  53 88 89 96  53 60 61 96  53 88 95 96  53 60 95 96  54 55 62 97  54 55 90 97  54 89 90 97  54 61 62 97  54 89 96 97  54 61 96 97  56 57 64 99  56 57 92 99  56 91 92 99  56 63 64 99  56 91 98 99  56 63 98 99  57 58 65 100  57 58 93 100  57 92 93 100  57 64 65 100  57 92 99 100  57 64 99 100  58 59 66 101  58 59 94 101  58 93 94 101  58 65 66 101  58 93 100 101  58 65 100 101  59 60 67 102  59 60 95 102  59 94 95 102  59 66 67 102  59 94 101 102  59 66 101 102  60 61 68 103  60 61 96 103  60 95 96 103  60 67 68 103  60 95 102 103  60 67 102 103  61 62 69 104  61 62 97 104  61 96 97 104  61 68 69 104  61 96 103 104  61 68 103 104  70 71 78 113  70 71 106 113  70 105 106 113  70 77 78 113  70 105 112 113  70 77 112 113  71 72 79 114  71 72 107 114  71 106 107 114  71 78 79 114  71 106 113 114  71 78 113 114  72 73 80 115  72 73 108 115  72 107 108 115  72 79 80 115  72 107 114 115  72 79 114 115  73 74 81 116  73 74 109 116  73 108 109 116  73 80 81 116  73 108 115 116  73 80 115 116  74 75 82 117  74 75 110 117  74 109 110 117  74 81 82 117  74 109 116 117  74 81 116 117  75 76 83 118  75 76 111 118  75 110 111 118  75 82 83 118  75 110 117 118  75 82 117 118  77 78 85 120  77 78 113 120  77 112 113 120  77 84 85 120  77 112 119 120  77 84 119 120  78 79 86 121  78 79 114 121  78 113 114 121  78 85 86 121  78 113 120 121  78 85 120 121  79 80 87 122  79 80 115 122  79 114 115 122  79 86 87 122  79 114 121 122  79 86 121 122  80 81 88 123  80 81 116 123  80 115 116 123  80 87 88 123  80 115 122 123  80 87 122 123  81 82 89 124  81 82 117 124  81 116 117 124  81 88 89 124  81 116 123 124  81 88 123 124  82 83 90 125  82 83 118 125  82 117 118 125  82 89 90 125  82 117 124 125  82 89 124 125  84 85 92 127  84 85 120 127  84 119 120 127  84 91 92 127  84 119 126 127  84 91 126 127  85 86 93 128  85 86 121 128  85 120 121 128  85 92 93 128  85 120 127 128  85 92 127 128  86 87 94 129  86 87 122 129  86 121 122 129  86 93 94 129  86 121 128 129  86 93 128 129  87 88 95 130  87 88 123 130  87 122 123 130  87 94 95 130  87 122 129 130  87 94 129 130  88 89 96 131  88 89 124 131  88 123 124 131  88 95 96 131  88 123 130 131  88 95 130 131  89 90 97 132  89 90 125 132  89 124 125 132  89 96 97 132  89 124 131 132  89 96 131 132  91 92 99 134  91 92 127 134  91 126 127 134  91 98 99 134  91 126 133 134  91 98 133 134  92 93 100 135  92 93 128 135  92 127 128 135  92 99 100 135  92 127 134 135  92 99 134 135  93 94 101 136  93 94 129 136  93 128 129 136  93 100 101 136  93 128 135 136  93 100 135 136  94 95 102 137  94 95 130 137  94 129 130 137  94 101 102 137  94 129 136 137  94 101 136 137  95 96 103 138  95 96 131 138  95 130 131 138  95 102 103 138  95 130 137 138  95 102 137 138  96 97 104 139  96 97 132 139  96 131 132 139  96 103 104 139  96 131 138 139  96 103 138 139  105 106 113 148  105 106 141 148  105 140 141 148  105 112 113 148  105 140 147 148  105 112 147 148  106 107 114 149  106 107 142 149  106 141 142 149  106 113 114 149  106 141 148 149  106 113 148 149  107 108 115 150  107 108 143 150  107 142 143 150  107 114 115 150  107 142 149 150  107 114 149 150  108 109 116 151  108 109 144 151  108 143 144 151  108 115 116 151  108 143 150 151  108 115 150 151  109 110 117 152  109 110 145 152  109 144 145 152  109 116 117 152  109 144 151 152  109 116 151 152  110 111 118 153  110 111 146 153  110 145 146 153  110 117 118 153  110 145 152 153  110 117 152 153  112 113 120 155  112 113 148 155  112 147 148 155  112 119 120 155  112 147 154 155  112 119 154 155  113 114 121 156  113 114 149 156  113 148 149 156  113 120 121 156  113 148 155 156  113 120 155 156  114 115 122 157  114 115 150 157  114 149 150 157  114 121 122 157  114 149 156 157  114 121 156 157  115 116 123 158  115 116 151 158  115 150 151 158  115 122 123 158  115 150 157 158  115 122 157 158  116 117 124 159  116 117 152 159  116 151 152 159  116 123 124 159  116 151 158 159  116 123 158 159  117 118 125 160  117 118 153 160  117 152 153 160  117 124 125 160  117 152 159 160  117 124 159 160  119 120 127 162  119 120 155 162  119 154 155 162  119 126 127 162  119 154 161 162  119 126 161 162  120 121 128 163  120 121 156 163  120 155 156 163  120 127 128 163  120 155 162 163  120 127 162 163  121 122 129 164  121 122 157 164  121 156 157 164  121 128 129 164  121 156 163 164  121 128 163 164  122 123 130 165  122 123 158 165  122 157 158 165  122 129 130 165  122 157 164 165  122 129 164 165  123 124 131 166  123 124 159 166  123 158 159 166  123 130 131 166  123 158 165 166  123 130 165 166  124 125 132 167  124 125 160 167  124 159 160 167  124 131 132 167  124 159 166 167  124 131 166 167  126 127 134 169  126 127 162 169  126 161 162 169  126 133 134 169  126 161 168 169  126 133 168 169  127 128 135 170  127 128 163 170  127 162 163 170  127 134 135 170  127 162 169 170  127 134 169 170  128 129 136 171  128 129 164 171  128 163 164 171  128 135 136 171  128 163 170 171  128 135 170 171  129 130 137 172  129 130 165 172  129 164 165 172  129 136 137 172  129 164 171 172  129 136 171 172  130 131 138 173  130 131 166 173  130 165 166 173  130 137 138 173  130 165 172 173  130 137 172 173  131 132 139 174  131 132 167 174  131 166 167 174  131 138 139 174  131 166 173 174  131 138 173 174  140 141 148 183  140 141 176 183  140 175 176 183  140 147 148 183  140 175 182 183  140 147 182 183  141 142 149 184  141 142 177 184  141 176 177 184  141 148 149 184  141 176 183 184  141 148 183 184  142 143 150 185  142 143 178 185  142 177 178 185  142 149 150 185  142 177 184 185  142 149 184 185  143 144 151 186  143 144 179 186  143 178 179 186  143 150 151 186  143 178 185 186  143 150 185 186  144 145 152 187  144 145 180 187  144 179 180 187  144 151 152 187  144 179 186 187  144 151 186 187  145 146 153 188  145 146 181 188  145 180 181 188  145 152 153 188  145 180 187 188  145 152 187 188  147 148 155 190  147 148 183 190  147 182 183 190  147 154 155 190  147 182 189 190  147 154 189 190  148 149 156 191  148 149 184 191  148 183 184 191  148 155 156 191  148 183 190 191  148 155 190 191  149 150 157 192  149 150 185 192  149 184 185 192  149 156 157 192  149 184 191 192  149 156 191 192  150 151 158 193  150 151 186 193  150 185 186 193  150 157 158 193  150 185 192 193  150 157 192 193  151 152 159 194  151 152 187 194  151 186 187 194  151 158 159 194  151 186 193 194  151 158 193 194  152 153 160 195  152 153 188 195  152 187 188 195  152 159 160 195  152 187 194 195  152 159 194 195  154 155 162 197  154 155 190 197  154 189 190 197  154 161 162 197  154 189 196 197  154 161 196 197  155 156 163 198  155 156 191 198  155 190 191 198  155 162 163 198  155 190 197 198  155 162 197 198  156 157 164 199  156 157 192 199  156 191 192 199  156 163 164 199  156 191 198 199  156 163 198 199  157 158 165 200  157 158 193 200  157 192 193 200  157 164 165 200  157 192 199 200  157 164 199 200  158 159 166 201  158 159 194 201  158 193 194 201  158 165 166 201  158 193 200 201  158 165 200 201  159 160 167 202  159 160 195 202  159 194 195 202  159 166 167 202  159 194 201 202  159 166 201 202  161 162 169 204  161 162 197 204  161 196 197 204  161 168 169 204  161 196 203 204  161 168 203 204  162 163 170 205  162 163 198 205  162 197 198 205  162 169 170 205  162 197 204 205  162 169 204 205  163 164 171 206  163 164 199 206  163 198 199 206  163 170 171 206  163 198 205 206  163 170 205 206  164 165 172 207  164 165 200 207  164 199 200 207  164 171 172 207  164 199 206 207  164 171 206 207  165 166 173 208  165 166 201 208  165 200 201 208  165 172 173 208  165 200 207 208  165 172 207 208  166 167 174 209  166 167 202 209  166 201 202 209  166 173 174 209  166 201 208 209  166 173 208 209  </DataArray>
<DataArray  type="UInt32"  Name="offsets"  format="ascii">4 8 12 16 20 24 28 32 36 40 44 48 52 56 60 64 68 72 76 80 84 88 92 96 100 104 108 112 116 120 124 128 132 136 140 144 148 152 156 160 164 168 172 176 180 184 188 192 196 200 204 208 212 216 220 224 228 232 236 240 244 248 252 256 260 264 268 272 276 280 284 288 292 296 300 304 308 312 316 320 324 328 332 336 340 344 348 352 356 360 364 368 372 376 380 384 388 392 396 400 404 408 412 416 420 424 428 432 436 440 444 448 452 456 460 464 468 472 476 480 484 488 492 496 500 504 508 512 516 520 524 528 532 536 540 544 548 552 556 560 564 568 572 576 580 584 588 592 596 600 604 608 612 616 620 624 628 632 636 640 644 648 652 656 660 664 668 672 676 680 684 688 692 696 700 704 708 712 716 720 724 728 732 736 740 744 748 752 756 760 764 768 772 776 780 784 788 792 796 800 804 808 812 816 820 824 828 832 836 840 844 848 852 856 860 864 868 872 876 880 884 888 892 896 900 904 908 912 916 920 924 928 932 936 940 944 948 952 956 960 964 968 972 976 980 984 988 992 996 1000 1004 1008 1012 1016 1020 1024 1028 1032 1036 1040 1044 1048 1052 1056 1060 1064 1068 1072 1076 1080 1084 1088 1092 1096 1100 1104 1108 1112 1116 1120 1124 1128 1132 1136 1140 1144 1148 1152 1156 1160 1164 1168 1172 1176 1180 1184 1188 1192 1196 1200 1204 1208 1212 1216 1220 1224 1228 1232 1236 1240 1244 1248 1252 1256 1260 1264 1268 1272 1276 1280 1284 1288 1292 1296 1300 1304 1308 1312 1316 1320 1324 1328 1332 1336 1340 1344 1348 1352 1356 1360 1364 1368 1372 1376 1380 1384 1388 1392 1396 1400 1404 1408 1412 1416 1420 1424 1428 1432 1436 1440 1444 1448 1452 1456 1460 1464 1468 1472 1476 1480 1484 1488 1492 1496 1500 1504 1508 1512 1516 1520 1524 1528 1532 1536 1540 1544 1548 1552 1556 1560 1564 1568 1572 1576 1580 1584 1588 1592 1596 1600 1604 1608 1612 1616 1620 1624 1628 1632 1636 1640 1644 1648 1652 1656 1660 1664 1668 1672 1676 1680 1684 1688 1692 1696 1700 1704 1708 1712 1716 1720 1724 1728 1732 1736 1740 1744 1748 1752 1756 1760 1764 1768 1772 1776 1780 1784 1788 1792 1796 1800 1804 1808 1812 1816 1820 1824 1828 1832 1836 1840 1844 1848 1852 1856 1860 1864 1868 1872 1876 1880 1884 1888 1892 1896 1900 1904 1908 1912 1916 1920 1924 1928 1932 1936 1940 1944 1948 1952 1956 1960 1964 1968 1972 1976 1980 1984 1988 1992 1996 2000 2004 2008 2012 2016 2020 2024 2028 2032 2036 2040 2044 2048 2052 2056 2060 2064 2068 2072 2076 2080 2084 2088 2092 2096 2100 2104 2108 2112 2116 2120 2124 2128 2132 2136 2140 2144 2148 2152 2156 2160 2164 2168 2172 2176 2180 2184 2188 2192 2196 2200 2204 2208 2212 2216 2220 2224 2228 2232 2236 2240 2244 2248 2252 2256 2260 2264 2268 2272 2276 2280 2284 2288 2292 2296 2300 2304 2308 2312 2316 2320 2324 2328 2332 2336 2340 2344 2348 2352 2356 2360 2364 2368 2372 2376 2380 2384 2388 2392 2396 2400 2404 2408 2412 2416 2420 2424 2428 2432 2436 2440 2444 2448 2452 2456 2460 2464 2468 2472 2476 2480 2484 2488 2492 2496 2500 2504 2508 2512 2516 2520 2524 2528 2532 2536 2540 2544 2548 2552 2556 2560 2564 2568 2572 2576 2580 2584 2588 2592 2596 2600 2604 2608 2612 2616 2620 2624 2628 2632 2636 2640 2644 2648 2652 2656 2660 2664 2668 2672 2676 2680 2684 2688 2692 2696 2700 2704 2708 2712 2716 2720 2724 2728 2732 2736 2740 2744 2748 2752 2756 2760 2764 2768 2772 2776 2780 2784 2788 2792 2796 2800 2804 2808 2812 2816 2820 2824 2828 2832 2836 2840 2844 2848 2852 2856 2860 2864 2868 2872 2876 2880 </DataArray>
<DataArray  type="UInt8"  Name="types"  format="ascii">10 10 10 10 10 10 10 10 10 10 10 10 10 10 10 10 10 10 10 10 10 10 10 10 10 10 10 10 10 10 10 10 10 10 10 10 10 10 10 10 10 10 10 10 10 10 10 10 10 10 10 10 10 10 10 10 10 10 10 10 10 10 10 10 10 10 10 10 10 10 10 10 10 10 10 10 10 10 10 10 10 10 10 10 10 10 10 10 10 10 10 10 10 10 10 10 10 10 10 10 10 10 10 10 10 10 10 10 10 10 10 10 10 10 10 10 10 10 10 10 10 10 10 10 10 10 10 10 10 10 10 10 10 10 10 10 10 10 10 10 10 10 10 10 10 10 10 10 10 10 10 10 10 10 10 10 10 10 10 10 10 10 10 10 10 10 10 10 10 10 10 10 10 10 10 10 10 10 10 10 10 10 10 10 10 10 10 10 10 10 10 10 10 10 10 10 10 10 10 10 10 10 10 10 10 10 10 10 10 10 10 10 10 10 10 10 10 10 10 10 10 10 10 10 10 10 10 10 10 10 10 10 10 10 10 10 10 10 10 10 10 10 10 10 10 10 10 10 10 10 10 10 10 10 10 10 10 10 10 10 10 10 10 10 10 10 10 10 10 10 10 10 10 10 10 10 10 10 10 10 10 10 10 10 10 10 10 10 10 10 10 10 10 10 10 10 10 10 10 10 10 10 10 10 10 10 10 10 10 10 10 10 10 10 10 10 10 10 10 10 10 10 10 10 10 10 10 10 10 10 10 10 10 10 10 10 10 10 10 10 10 10 10 10 10 10 10 10 10 10 10 10 10 10 10 10 10 10 10 10 10 10 10 10 10 10 10 10 10 10 10 10 10 10 10 10 10 10 10 10 10 10 10 10 10 10 10 10 10 10 10 10 10 10 10 10 10 10 10 10 10 10 10 10 10 10 10 10 10 10 10 10 10 10 10 10 10 10 10 10 10 10 10 10 10 10 10 10 10 10 10 10 10 10 10 10 10 10 10 10 10 10 10 10 10 10 10 10 10 10 10 10 10 10 10 10 10 10 10 10 10 10 10 10 10 10 10 10 10 10 10 10 10 10 10 10 10 10 10 10 10 10 10 10 10 10 10 10 10 10 10 10 10 10 10 10 10 10 10 10 10 10 10 10 10 10 10 10 10 10 10 10 10 10 10 10 10 10 10 10 10 10 10 10 10 10 10 10 10 10 10 10 10 10 10 10 10 10 10 10 10 10 10 10 10 10 10 10 10 10 10 10 10 10 10 10 10 10 10 10 10 10 10 10 10 10 10 10 10 10 10 10 10 10 10 10 10 10 10 10 10 10 10 10 10 10 10 10 10 10 10 10 10 10 10 10 10 10 10 10 10 10 10 10 10 10 10 10 10 10 10 10 10 10 10 10 10 10 10 10 10 10 10 10 10 10 10 10 10 10 10 10 10 10 10 10 10 10 10 10 10 10 10 10 10 10 10 10 10 10 10 10 10 10 10 10 10 10 10 10 10 10 10 10 10 10 10 10 10 10 10 10 10 10 10 10 10 10 10 10 10 10 10 10 10 10 10 10 10 10 10 10 10 10 10 10 10 10 10 10 10 10 10 10 10 10 10 10 10 10 10 10 10 10 10 10 10 10 10 10 </DataArray>
</Cells>
<PointData  Scalars="u"> 
<DataArray  type="Float32"  Name="u"  format="ascii">1.000000e+00  1.027778e+00  1.111111e+00  1.250000e+00  1.444445e+00  1.694445e+00  2.000000e+00  1.125000e+00  1.152778e+00  1.236111e+00  1.375000e+00  1.569445e+00  1.819445e+00  2.125000e+00  1.500000e+00  1.527778e+00  1.611111e+00  1.750000e+00  1.944445e+00  2.194445e+00  2.500000e+00  2.125000e+00  2.152778e+00  2.236111e+00  2.375000e+00  2.569445e+00  2.819445e+00  3.125001e+00  3.000001e+00  3.027778e+00  3.111112e+00  3.250001e+00  3.444445e+00  3.694445e+00  4.000001e+00  1.000000e+00  1.027778e+00  1.111111e+00  1.250000e+00  1.444445e+00  1.694445e+00  2.000000e+00  1.125000e+00  1.152777e+00  1.236109e+00  1.374997e+00  1.569441e+00  1.819442e+00  2.125000e+00  1.500000e+00  1.527776e+00  1.611107e+00  1.749995e+00  1.944440e+00  2.194442e+00  2.500000e+00  2.125000e+00  2.152776e+00  2.236108e+00  2.374996e+00  2.569441e+00  2.819443e+00  3.125001e+00  3.000001e+00  3.027778e+00  3.111112e+00  3.250001e+00  3.444445e+00  3.694445e+00  4.000001e+00  1.000000e+00  1.027778e+00  1.111111e+00  1.250000e+00  1.444445e+00  1.694445e+00  2.000000e+00  1.125000e+00  1.152775e+00  1.236107e+00  1.374994e+00  1.569438e+00  1.819441e+00  2.125000e+00  1.500000e+00  1.527774e+00  1.611104e+00  1.749992e+00  1.944438e+00  2.194443e+00  2.500000e+00  2.125000e+00  2.152775e+00  2.236106e+00  2.374995e+00  2.569441e+00  2.819443e+00  3.125001e+00  3.000001e+00  3.027778e+00  3.111112e+00  3.250001e+00  3.444445e+00  3.694445e+00  4.000001e+00  1.000000e+00  1.027778e+00  1.111111e+00  1.250000e+00  1.444445e+00  1.694445e+00  2.000000e+00  1.125000e+00  1.152775e+00  1.236106e+00  1.374993e+00  1.569438e+00  1.819443e+00  2.125000e+00  1.500000e+00  1.527774e+00  1.611104e+00  1.749993e+00  1.944440e+00  2.194443e+00  2.500000e+00  2.125000e+00  2.152774e+00  2.236107e+00  2.374996e+00  2.569439e+00  2.819438e+00  3.125001e+00  3.000001e+00  3.027778e+00  3.111112e+00  3.250001e+00  3.444445e+00  3.694445e+00  4.000001e+00  1.000000e+00  1.027778e+00  1.111111e+00  1.250000e+00  1.444445e+00  1.694445e+00  2.000000e+00  1.125000e+00  1.152776e+00  1.236107e+00  1.374996e+00  1.569443e+00  1.819445e+00  2.125000e+00  1.500000e+00  1.527775e+00  1.611108e+00  1.749998e+00  1.944442e+00  2.194440e+00  2.500000e+00  2.125000e+00  2.152775e+00  2.236110e+00  2.374999e+00  2.569438e+00  2.819439e+00  3.125001e+00  3.000001e+00  3.027778e+00  3.111112e+00  3.250001e+00  3.444445e+00  3.694445e+00  4.000001e+00  1.000000e+00  1.027778e+00  1.111111e+00  1.250000e+00  1.444445e+00  1.694445e+00  2.000000e+00  1.125000e+00  1.152778e+00  1.236111e+00  1.375000e+00  1.569445e+00  1.819445e+00  2.125000e+00  1.500000e+00  1.527778e+00  1.611111e+00  1.750000e+00  1.944445e+00  2.194445e+00  2.500000e+00  2.125000e+00  2.152778e+00  2.236111e+00  2.375000e+00  2.569445e+00  2.819445e+00  3.125001e+00  3.000001e+00  3.027778e+00  3.111112e+00  3.250001e+00  3.444445e+00  3.694445e+00  4.000001e+00  </DataArray> 
</PointData> 
</Piece>
</UnstructuredGrid>
</VTKFile>